% Model:              20221215_photosensitive_tag_attachment_test_1D_axisymmetric.mph
% Version:            COMSOL 6.0.0.405
% Date:               Dec 15 2022, 09:30
% Dimension:          1
% Nodes:              1
% Expressions:        392
% Description:        
% ma @ t=0, tMax=10; ma @ t=5, tMax=10; ma @ t=10, tMax=10; ma @ t=15, tMax=10; ma @ t=20, tMax=10; ma @ t=25, tMax=10; ma @ t=30, tMax=10; ma @ t=35, tMax=10; ma @ t=40, tMax=10; ma @ t=45, tMax=10; ma @ t=50, tMax=10; ma @ t=55, tMax=10; ma @ t=60, tMax=10; ma @ t=65, tMax=10; ma @ t=70, tMax=10; ma @ t=75, tMax=10; ma @ t=80, tMax=10; ma @ t=85, tMax=10; ma @ t=90, tMax=10; ma @ t=95, tMax=10; ma @ t=100, tMax=10; ma @ t=105, tMax=10; ma @ t=110, tMax=10; ma @ t=115, tMax=10; ma @ t=120, tMax=10; ma @ t=125, tMax=10; ma @ t=130, tMax=10; ma @ t=135, tMax=10; ma @ t=140, tMax=10; ma @ t=145, tMax=10; ma @ t=150, tMax=10; ma @ t=155, tMax=10; ma @ t=160, tMax=10; ma @ t=165, tMax=10; ma @ t=170, tMax=10; ma @ t=175, tMax=10; ma @ t=180, tMax=10; ma @ t=185, tMax=10; ma @ t=190, tMax=10; ma @ t=195, tMax=10; ma @ t=200, tMax=10; ma @ t=205, tMax=10; ma @ t=210, tMax=10; ma @ t=215, tMax=10; ma @ t=220, tMax=10; ma @ t=225, tMax=10; ma @ t=230, tMax=10; ma @ t=235, tMax=10; ma @ t=240, tMax=10; ma @ t=245, tMax=10; ma @ t=250, tMax=10; ma @ t=255, tMax=10; ma @ t=260, tMax=10; ma @ t=265, tMax=10; ma @ t=270, tMax=10; ma @ t=275, tMax=10; ma @ t=280, tMax=10; ma @ t=285, tMax=10; ma @ t=290, tMax=10; ma @ t=295, tMax=10; ma @ t=300, tMax=10; ma @ t=305, tMax=10; ma @ t=310, tMax=10; ma @ t=315, tMax=10; ma @ t=320, tMax=10; ma @ t=325, tMax=10; ma @ t=330, tMax=10; ma @ t=335, tMax=10; ma @ t=340, tMax=10; ma @ t=345, tMax=10; ma @ t=350, tMax=10; ma @ t=355, tMax=10; ma @ t=360, tMax=10; ma @ t=365, tMax=10; ma @ t=370, tMax=10; ma @ t=375, tMax=10; ma @ t=380, tMax=10; ma @ t=385, tMax=10; ma @ t=390, tMax=10; ma @ t=395, tMax=10; ma @ t=400, tMax=10; ma @ t=405, tMax=10; ma @ t=410, tMax=10; ma @ t=415, tMax=10; ma @ t=420, tMax=10; ma @ t=425, tMax=10; ma @ t=430, tMax=10; ma @ t=435, tMax=10; ma @ t=440, tMax=10; ma @ t=445, tMax=10; ma @ t=450, tMax=10; ma @ t=455, tMax=10; ma @ t=460, tMax=10; ma @ t=465, tMax=10; ma @ t=470, tMax=10; ma @ t=475, tMax=10; ma @ t=480, tMax=10; ma @ t=485, tMax=10; ma @ t=490, tMax=10; ma @ t=495, tMax=10; ma @ t=500, tMax=10; ma @ t=505, tMax=10; ma @ t=510, tMax=10; ma @ t=515, tMax=10; ma @ t=520, tMax=10; ma @ t=525, tMax=10; ma @ t=530, tMax=10; ma @ t=535, tMax=10; ma @ t=540, tMax=10; ma @ t=545, tMax=10; ma @ t=550, tMax=10; ma @ t=555, tMax=10; ma @ t=560, tMax=10; ma @ t=565, tMax=10; ma @ t=570, tMax=10; ma @ t=575, tMax=10; ma @ t=580, tMax=10; ma @ t=585, tMax=10; ma @ t=590, tMax=10; ma @ t=595, tMax=10; ma @ t=600, tMax=10; ma @ t=605, tMax=10; ma @ t=610, tMax=10; ma @ t=615, tMax=10; ma @ t=620, tMax=10; ma @ t=625, tMax=10; ma @ t=630, tMax=10; ma @ t=635, tMax=10; ma @ t=640, tMax=10; ma @ t=645, tMax=10; ma @ t=650, tMax=10; ma @ t=655, tMax=10; ma @ t=660, tMax=10; ma @ t=665, tMax=10; ma @ t=670, tMax=10; ma @ t=675, tMax=10; ma @ t=680, tMax=10; ma @ t=685, tMax=10; ma @ t=690, tMax=10; ma @ t=695, tMax=10; ma @ t=700, tMax=10; ma @ t=705, tMax=10; ma @ t=710, tMax=10; ma @ t=715, tMax=10; ma @ t=720, tMax=10; ma @ t=725, tMax=10; ma @ t=730, tMax=10; ma @ t=735, tMax=10; ma @ t=740, tMax=10; ma @ t=745, tMax=10; ma @ t=750, tMax=10; ma @ t=755, tMax=10; ma @ t=760, tMax=10; ma @ t=765, tMax=10; ma @ t=770, tMax=10; ma @ t=775, tMax=10; ma @ t=780, tMax=10; ma @ t=785, tMax=10; ma @ t=790, tMax=10; ma @ t=795, tMax=10; ma @ t=800, tMax=10; ma @ t=805, tMax=10; ma @ t=810, tMax=10; ma @ t=815, tMax=10; ma @ t=820, tMax=10; ma @ t=825, tMax=10; ma @ t=830, tMax=10; ma @ t=835, tMax=10; ma @ t=840, tMax=10; ma @ t=845, tMax=10; ma @ t=850, tMax=10; ma @ t=855, tMax=10; ma @ t=860, tMax=10; ma @ t=865, tMax=10; ma @ t=870, tMax=10; ma @ t=875, tMax=10; ma @ t=880, tMax=10; ma @ t=885, tMax=10; ma @ t=890, tMax=10; ma @ t=895, tMax=10; ma @ t=900, tMax=10; ma @ t=905, tMax=10; ma @ t=910, tMax=10; ma @ t=915, tMax=10; ma @ t=920, tMax=10; ma @ t=925, tMax=10; ma @ t=930, tMax=10; ma @ t=935, tMax=10; ma @ t=940, tMax=10; ma @ t=945, tMax=10; ma @ t=950, tMax=10; ma @ t=955, tMax=10; ma @ t=960, tMax=10; ma @ t=965, tMax=10; ma @ t=970, tMax=10; ma @ t=975, tMax=10; ma @ t=980, tMax=10; ma @ t=985, tMax=10; ma @ t=990, tMax=10; ma @ t=995, tMax=10; ma @ t=1000, tMax=10; ma @ t=1005, tMax=10; ma @ t=1010, tMax=10; ma @ t=1015, tMax=10; ma @ t=1020, tMax=10; ma @ t=1025, tMax=10; ma @ t=1030, tMax=10; ma @ t=1035, tMax=10; ma @ t=1040, tMax=10; ma @ t=1045, tMax=10; ma @ t=1050, tMax=10; ma @ t=1055, tMax=10; ma @ t=1060, tMax=10; ma @ t=1065, tMax=10; ma @ t=1070, tMax=10; ma @ t=1075, tMax=10; ma @ t=1080, tMax=10; ma @ t=1085, tMax=10; ma @ t=1090, tMax=10; ma @ t=1095, tMax=10; ma @ t=1100, tMax=10; ma @ t=1105, tMax=10; ma @ t=1110, tMax=10; ma @ t=1115, tMax=10; ma @ t=1120, tMax=10; ma @ t=1125, tMax=10; ma @ t=1130, tMax=10; ma @ t=1135, tMax=10; ma @ t=1140, tMax=10; ma @ t=1145, tMax=10; ma @ t=1150, tMax=10; ma @ t=1155, tMax=10; ma @ t=1160, tMax=10; ma @ t=1165, tMax=10; ma @ t=1170, tMax=10; ma @ t=1175, tMax=10; ma @ t=1180, tMax=10; ma @ t=1185, tMax=10; ma @ t=1190, tMax=10; ma @ t=1195, tMax=10; ma @ t=1200, tMax=10; ma @ t=1205, tMax=10; ma @ t=1210, tMax=10; ma @ t=1215, tMax=10; ma @ t=1220, tMax=10; ma @ t=1225, tMax=10; ma @ t=1230, tMax=10; ma @ t=1235, tMax=10; ma @ t=1240, tMax=10; ma @ t=1245, tMax=10; ma @ t=1250, tMax=10; ma @ t=1255, tMax=10; ma @ t=1260, tMax=10; ma @ t=1265, tMax=10; ma @ t=1270, tMax=10; ma @ t=1275, tMax=10; ma @ t=1280, tMax=10; ma @ t=1285, tMax=10; ma @ t=1290, tMax=10; ma @ t=1295, tMax=10; ma @ t=1300, tMax=10; ma @ t=1305, tMax=10; ma @ t=1310, tMax=10; ma @ t=1315, tMax=10; ma @ t=1320, tMax=10; ma @ t=1325, tMax=10; ma @ t=1330, tMax=10; ma @ t=1335, tMax=10; ma @ t=1340, tMax=10; ma @ t=1345, tMax=10; ma @ t=1350, tMax=10; ma @ t=1355, tMax=10; ma @ t=1360, tMax=10; ma @ t=1365, tMax=10; ma @ t=1370, tMax=10; ma @ t=1375, tMax=10; ma @ t=1380, tMax=10; ma @ t=1385, tMax=10; ma @ t=1390, tMax=10; ma @ t=1395, tMax=10; ma @ t=1400, tMax=10; ma @ t=1405, tMax=10; ma @ t=1410, tMax=10; ma @ t=1415, tMax=10; ma @ t=1420, tMax=10; ma @ t=1425, tMax=10; ma @ t=1430, tMax=10; ma @ t=1435, tMax=10; ma @ t=1440, tMax=10; ma @ t=1445, tMax=10; ma @ t=1450, tMax=10; ma @ t=1455, tMax=10; ma @ t=1460, tMax=10; ma @ t=1465, tMax=10; ma @ t=1470, tMax=10; ma @ t=1475, tMax=10; ma @ t=1480, tMax=10; ma @ t=1485, tMax=10; ma @ t=1490, tMax=10; ma @ t=1495, tMax=10; ma @ t=1500, tMax=10; ma @ t=1505, tMax=10; ma @ t=1510, tMax=10; ma @ t=1515, tMax=10; ma @ t=1520, tMax=10; ma @ t=1525, tMax=10; ma @ t=1530, tMax=10; ma @ t=1535, tMax=10; ma @ t=1540, tMax=10; ma @ t=1545, tMax=10; ma @ t=1550, tMax=10; ma @ t=1555, tMax=10; ma @ t=1560, tMax=10; ma @ t=1565, tMax=10; ma @ t=1570, tMax=10; ma @ t=1575, tMax=10; ma @ t=1580, tMax=10; ma @ t=1585, tMax=10; ma @ t=1590, tMax=10; ma @ t=1595, tMax=10; ma @ t=1600, tMax=10; ma @ t=1605, tMax=10; ma @ t=1610, tMax=10; ma @ t=1615, tMax=10; ma @ t=1620, tMax=10; ma @ t=1625, tMax=10; ma @ t=1630, tMax=10; ma @ t=1635, tMax=10; ma @ t=1640, tMax=10; ma @ t=1645, tMax=10; ma @ t=1650, tMax=10; ma @ t=1655, tMax=10; ma @ t=1660, tMax=10; ma @ t=1665, tMax=10; ma @ t=1670, tMax=10; ma @ t=1675, tMax=10; ma @ t=1680, tMax=10; ma @ t=1685, tMax=10; ma @ t=1690, tMax=10; ma @ t=1695, tMax=10; ma @ t=1700, tMax=10; ma @ t=1705, tMax=10; ma @ t=1710, tMax=10; ma @ t=1715, tMax=10; ma @ t=1720, tMax=10; ma @ t=1725, tMax=10; ma @ t=1730, tMax=10; ma @ t=1735, tMax=10; ma @ t=1740, tMax=10; ma @ t=1745, tMax=10; ma @ t=1750, tMax=10; ma @ t=1755, tMax=10; ma @ t=1760, tMax=10; ma @ t=1765, tMax=10; ma @ t=1770, tMax=10; ma @ t=1775, tMax=10; ma @ t=1780, tMax=10; ma @ t=1785, tMax=10; ma @ t=1790, tMax=10; ma @ t=1795, tMax=10; ma @ t=1800, tMax=10; ma @ t=1805, tMax=10; ma @ t=1810, tMax=10; ma @ t=1815, tMax=10; ma @ t=1820, tMax=10; ma @ t=1825, tMax=10; ma @ t=1830, tMax=10; ma @ t=1835, tMax=10; ma @ t=1840, tMax=10; ma @ t=1845, tMax=10; ma @ t=1850, tMax=10; ma @ t=1855, tMax=10; ma @ t=1860, tMax=10; ma @ t=1865, tMax=10; ma @ t=1870, tMax=10; ma @ t=1875, tMax=10; ma @ t=1880, tMax=10; ma @ t=1885, tMax=10; ma @ t=1890, tMax=10; ma @ t=1895, tMax=10; ma @ t=1900, tMax=10; ma @ t=1905, tMax=10; ma @ t=1910, tMax=10; ma @ t=1915, tMax=10; ma @ t=1920, tMax=10; ma @ t=1925, tMax=10; ma @ t=1930, tMax=10; ma @ t=1935, tMax=10; ma @ t=1940, tMax=10; ma @ t=1945, tMax=10; ma @ t=1950, tMax=10; ma @ t=1955, tMax=10; ma @ t=1960, tMax=10; ma @ t=1965, tMax=10; ma @ t=1970, tMax=10; ma @ t=1975, tMax=10; ma @ t=1980, tMax=10; ma @ t=1985, tMax=10; ma @ t=1990, tMax=10; ma @ t=1995, tMax=10; ma @ t=2000, tMax=10; ma @ t=2005, tMax=10; ma @ t=2010, tMax=10; ma @ t=2015, tMax=10; ma @ t=2020, tMax=10; ma @ t=2025, tMax=10; ma @ t=2030, tMax=10; ma @ t=2035, tMax=10; ma @ t=2040, tMax=10; ma @ t=2045, tMax=10; ma @ t=2050, tMax=10; ma @ t=2055, tMax=10; ma @ t=2060, tMax=10; ma @ t=2065, tMax=10; ma @ t=2070, tMax=10; ma @ t=2075, tMax=10; ma @ t=2080, tMax=10; ma @ t=2085, tMax=10; ma @ t=2090, tMax=10; ma @ t=2095, tMax=10; ma @ t=2100, tMax=10; ma @ t=2105, tMax=10; ma @ t=2110, tMax=10; ma @ t=2115, tMax=10; ma @ t=2120, tMax=10; ma @ t=2125, tMax=10; ma @ t=2130, tMax=10; ma @ t=2135, tMax=10; ma @ t=2140, tMax=10; ma @ t=2145, tMax=10; ma @ t=2150, tMax=10; ma @ t=2155, tMax=10; ma @ t=2160, tMax=10; ma @ t=2165, tMax=10; ma @ t=2170, tMax=10; ma @ t=2175, tMax=10; ma @ t=2180, tMax=10; ma @ t=2185, tMax=10; ma @ t=2190, tMax=10; ma @ t=2195, tMax=10; ma @ t=2200, tMax=10; ma @ t=2205, tMax=10; ma @ t=2210, tMax=10; ma @ t=2215, tMax=10; ma @ t=2220, tMax=10; ma @ t=2225, tMax=10; ma @ t=2230, tMax=10; ma @ t=2235, tMax=10; ma @ t=2240, tMax=10; ma @ t=2245, tMax=10; ma @ t=2250, tMax=10; ma @ t=2255, tMax=10; ma @ t=2260, tMax=10; ma @ t=2265, tMax=10; ma @ t=2270, tMax=10; ma @ t=2275, tMax=10; ma @ t=2280, tMax=10; ma @ t=2285, tMax=10; ma @ t=2290, tMax=10; ma @ t=2295, tMax=10; ma @ t=2300, tMax=10; ma @ t=2305, tMax=10; ma @ t=2310, tMax=10; ma @ t=2315, tMax=10; ma @ t=2320, tMax=10; ma @ t=2325, tMax=10; ma @ t=2330, tMax=10; ma @ t=2335, tMax=10; ma @ t=2340, tMax=10; ma @ t=2345, tMax=10; ma @ t=2350, tMax=10; ma @ t=2355, tMax=10; ma @ t=2360, tMax=10; ma @ t=2365, tMax=10; ma @ t=2370, tMax=10; ma @ t=2375, tMax=10; ma @ t=2380, tMax=10; ma @ t=2385, tMax=10; ma @ t=2390, tMax=10; ma @ t=2395, tMax=10; ma @ t=2400, tMax=10; ma @ t=2405, tMax=10; ma @ t=2410, tMax=10; ma @ t=2415, tMax=10; ma @ t=2420, tMax=10; ma @ t=2425, tMax=10; ma @ t=2430, tMax=10; ma @ t=2435, tMax=10; ma @ t=2440, tMax=10; ma @ t=2445, tMax=10; ma @ t=2450, tMax=10; ma @ t=2455, tMax=10; ma @ t=2460, tMax=10; ma @ t=2465, tMax=10; ma @ t=2470, tMax=10; ma @ t=2475, tMax=10; ma @ t=2480, tMax=10; ma @ t=2485, tMax=10; ma @ t=2490, tMax=10; ma @ t=2495, tMax=10; ma @ t=2500, tMax=10; ma @ t=2505, tMax=10; ma @ t=2510, tMax=10; ma @ t=2515, tMax=10; ma @ t=2520, tMax=10; ma @ t=2525, tMax=10; ma @ t=2530, tMax=10; ma @ t=2535, tMax=10; ma @ t=2540, tMax=10; ma @ t=2545, tMax=10; ma @ t=2550, tMax=10; ma @ t=2555, tMax=10; ma @ t=2560, tMax=10; ma @ t=2565, tMax=10; ma @ t=2570, tMax=10; ma @ t=2575, tMax=10; ma @ t=2580, tMax=10; ma @ t=2585, tMax=10; ma @ t=2590, tMax=10; ma @ t=2595, tMax=10; ma @ t=2600, tMax=10; ma @ t=2605, tMax=10; ma @ t=2610, tMax=10; ma @ t=2615, tMax=10; ma @ t=2620, tMax=10; ma @ t=2625, tMax=10; ma @ t=2630, tMax=10; ma @ t=2635, tMax=10; ma @ t=2640, tMax=10; ma @ t=2645, tMax=10; ma @ t=2650, tMax=10; ma @ t=2655, tMax=10; ma @ t=2660, tMax=10; ma @ t=2665, tMax=10; ma @ t=2670, tMax=10; ma @ t=2675, tMax=10; ma @ t=2680, tMax=10; ma @ t=2685, tMax=10; ma @ t=2690, tMax=10; ma @ t=2695, tMax=10; ma @ t=2700, tMax=10; ma @ t=2705, tMax=10; ma @ t=2710, tMax=10; ma @ t=2715, tMax=10; ma @ t=2720, tMax=10; ma @ t=2725, tMax=10; ma @ t=2730, tMax=10; ma @ t=2735, tMax=10; ma @ t=2740, tMax=10; ma @ t=2745, tMax=10; ma @ t=2750, tMax=10; ma @ t=2755, tMax=10; ma @ t=2760, tMax=10; ma @ t=2765, tMax=10; ma @ t=2770, tMax=10; ma @ t=2775, tMax=10; ma @ t=2780, tMax=10; ma @ t=2785, tMax=10; ma @ t=2790, tMax=10; ma @ t=2795, tMax=10; ma @ t=2800, tMax=10; ma @ t=2805, tMax=10; ma @ t=2810, tMax=10; ma @ t=2815, tMax=10; ma @ t=2820, tMax=10; ma @ t=2825, tMax=10; ma @ t=2830, tMax=10; ma @ t=2835, tMax=10; ma @ t=2840, tMax=10; ma @ t=2845, tMax=10; ma @ t=2850, tMax=10; ma @ t=2855, tMax=10; ma @ t=2860, tMax=10; ma @ t=2865, tMax=10; ma @ t=2870, tMax=10; ma @ t=2875, tMax=10; ma @ t=2880, tMax=10; ma @ t=2885, tMax=10; ma @ t=2890, tMax=10; ma @ t=2895, tMax=10; ma @ t=2900, tMax=10; ma @ t=2905, tMax=10; ma @ t=2910, tMax=10; ma @ t=2915, tMax=10; ma @ t=2920, tMax=10; ma @ t=2925, tMax=10; ma @ t=2930, tMax=10; ma @ t=2935, tMax=10; ma @ t=2940, tMax=10; ma @ t=2945, tMax=10; ma @ t=2950, tMax=10; ma @ t=2955, tMax=10; ma @ t=2960, tMax=10; ma @ t=2965, tMax=10; ma @ t=2970, tMax=10; ma @ t=2975, tMax=10; ma @ t=2980, tMax=10; ma @ t=2985, tMax=10; ma @ t=2990, tMax=10; ma @ t=2995, tMax=10; ma @ t=3000, tMax=10; ma @ t=3005, tMax=10; ma @ t=3010, tMax=10; ma @ t=3015, tMax=10; ma @ t=3020, tMax=10; ma @ t=3025, tMax=10; ma @ t=3030, tMax=10; ma @ t=3035, tMax=10; ma @ t=3040, tMax=10; ma @ t=3045, tMax=10; ma @ t=3050, tMax=10; ma @ t=3055, tMax=10; ma @ t=3060, tMax=10; ma @ t=3065, tMax=10; ma @ t=3070, tMax=10; ma @ t=3075, tMax=10; ma @ t=3080, tMax=10; ma @ t=3085, tMax=10; ma @ t=3090, tMax=10; ma @ t=3095, tMax=10; ma @ t=3100, tMax=10; ma @ t=3105, tMax=10; ma @ t=3110, tMax=10; ma @ t=3115, tMax=10; ma @ t=3120, tMax=10; ma @ t=3125, tMax=10; ma @ t=3130, tMax=10; ma @ t=3135, tMax=10; ma @ t=3140, tMax=10; ma @ t=3145, tMax=10; ma @ t=3150, tMax=10; ma @ t=3155, tMax=10; ma @ t=3160, tMax=10; ma @ t=3165, tMax=10; ma @ t=3170, tMax=10; ma @ t=3175, tMax=10; ma @ t=3180, tMax=10; ma @ t=3185, tMax=10; ma @ t=3190, tMax=10; ma @ t=3195, tMax=10; ma @ t=3200, tMax=10; ma @ t=3205, tMax=10; ma @ t=3210, tMax=10; ma @ t=3215, tMax=10; ma @ t=3220, tMax=10; ma @ t=3225, tMax=10; ma @ t=3230, tMax=10; ma @ t=3235, tMax=10; ma @ t=3240, tMax=10; ma @ t=3245, tMax=10; ma @ t=3250, tMax=10; ma @ t=3255, tMax=10; ma @ t=3260, tMax=10; ma @ t=3265, tMax=10; ma @ t=3270, tMax=10; ma @ t=3275, tMax=10; ma @ t=3280, tMax=10; ma @ t=3285, tMax=10; ma @ t=3290, tMax=10; ma @ t=3295, tMax=10; ma @ t=3300, tMax=10; ma @ t=3305, tMax=10; ma @ t=3310, tMax=10; ma @ t=3315, tMax=10; ma @ t=3320, tMax=10; ma @ t=3325, tMax=10; ma @ t=3330, tMax=10; ma @ t=3335, tMax=10; ma @ t=3340, tMax=10; ma @ t=3345, tMax=10; ma @ t=3350, tMax=10; ma @ t=3355, tMax=10; ma @ t=3360, tMax=10; ma @ t=3365, tMax=10; ma @ t=3370, tMax=10; ma @ t=3375, tMax=10; ma @ t=3380, tMax=10; ma @ t=3385, tMax=10; ma @ t=3390, tMax=10; ma @ t=3395, tMax=10; ma @ t=3400, tMax=10; ma @ t=3405, tMax=10; ma @ t=3410, tMax=10; ma @ t=3415, tMax=10; ma @ t=3420, tMax=10; ma @ t=3425, tMax=10; ma @ t=3430, tMax=10; ma @ t=3435, tMax=10; ma @ t=3440, tMax=10; ma @ t=3445, tMax=10; ma @ t=3450, tMax=10; ma @ t=3455, tMax=10; ma @ t=3460, tMax=10; ma @ t=3465, tMax=10; ma @ t=3470, tMax=10; ma @ t=3475, tMax=10; ma @ t=3480, tMax=10; ma @ t=3485, tMax=10; ma @ t=3490, tMax=10; ma @ t=3495, tMax=10; ma @ t=3500, tMax=10; ma @ t=3505, tMax=10; ma @ t=3510, tMax=10; ma @ t=3515, tMax=10; ma @ t=3520, tMax=10; ma @ t=3525, tMax=10; ma @ t=3530, tMax=10; ma @ t=3535, tMax=10; ma @ t=3540, tMax=10; ma @ t=3545, tMax=10; ma @ t=3550, tMax=10; ma @ t=3555, tMax=10; ma @ t=3560, tMax=10; ma @ t=3565, tMax=10; ma @ t=3570, tMax=10; ma @ t=3575, tMax=10; ma @ t=3580, tMax=10; ma @ t=3585, tMax=10; ma @ t=3590, tMax=10; ma @ t=3595, tMax=10; ma @ t=3600, tMax=10; ma @ t=3605, tMax=10; ma @ t=3610, tMax=10; ma @ t=3615, tMax=10; ma @ t=3620, tMax=10; ma @ t=3625, tMax=10; ma @ t=3630, tMax=10; ma @ t=3635, tMax=10; ma @ t=3640, tMax=10; ma @ t=3645, tMax=10; ma @ t=3650, tMax=10; ma @ t=3655, tMax=10; ma @ t=3660, tMax=10; ma @ t=3665, tMax=10; ma @ t=3670, tMax=10; ma @ t=3675, tMax=10; ma @ t=3680, tMax=10; ma @ t=3685, tMax=10; ma @ t=3690, tMax=10; ma @ t=3695, tMax=10; ma @ t=3700, tMax=10; ma @ t=3705, tMax=10; ma @ t=3710, tMax=10; ma @ t=3715, tMax=10; ma @ t=3720, tMax=10; ma @ t=3725, tMax=10; ma @ t=3730, tMax=10; ma @ t=3735, tMax=10; ma @ t=3740, tMax=10; ma @ t=3745, tMax=10; ma @ t=3750, tMax=10; ma @ t=3755, tMax=10; ma @ t=3760, tMax=10; ma @ t=3765, tMax=10; ma @ t=3770, tMax=10; ma @ t=3775, tMax=10; ma @ t=3780, tMax=10; ma @ t=3785, tMax=10; ma @ t=3790, tMax=10; ma @ t=3795, tMax=10; ma @ t=3800, tMax=10; ma @ t=3805, tMax=10; ma @ t=3810, tMax=10; ma @ t=3815, tMax=10; ma @ t=3820, tMax=10; ma @ t=3825, tMax=10; ma @ t=3830, tMax=10; ma @ t=3835, tMax=10; ma @ t=3840, tMax=10; ma @ t=3845, tMax=10; ma @ t=3850, tMax=10; ma @ t=3855, tMax=10; ma @ t=3860, tMax=10; ma @ t=3865, tMax=10; ma @ t=3870, tMax=10; ma @ t=3875, tMax=10; ma @ t=3880, tMax=10; ma @ t=3885, tMax=10; ma @ t=3890, tMax=10; ma @ t=3895, tMax=10; ma @ t=3900, tMax=10; ma @ t=3905, tMax=10; ma @ t=3910, tMax=10; ma @ t=3915, tMax=10; ma @ t=3920, tMax=10; ma @ t=3925, tMax=10; ma @ t=3930, tMax=10; ma @ t=3935, tMax=10; ma @ t=3940, tMax=10; ma @ t=3945, tMax=10; ma @ t=3950, tMax=10; ma @ t=3955, tMax=10; ma @ t=3960, tMax=10; ma @ t=3965, tMax=10; ma @ t=3970, tMax=10; ma @ t=3975, tMax=10; ma @ t=3980, tMax=10; ma @ t=3985, tMax=10; ma @ t=3990, tMax=10; ma @ t=3995, tMax=10; ma @ t=4000, tMax=10; ma @ t=4005, tMax=10; ma @ t=4010, tMax=10; ma @ t=4015, tMax=10; ma @ t=4020, tMax=10; ma @ t=4025, tMax=10; ma @ t=4030, tMax=10; ma @ t=4035, tMax=10; ma @ t=4040, tMax=10; ma @ t=4045, tMax=10; ma @ t=4050, tMax=10; ma @ t=4055, tMax=10; ma @ t=4060, tMax=10; ma @ t=4065, tMax=10; ma @ t=4070, tMax=10; ma @ t=4075, tMax=10; ma @ t=4080, tMax=10; ma @ t=4085, tMax=10; ma @ t=4090, tMax=10; ma @ t=4095, tMax=10; ma @ t=4100, tMax=10; ma @ t=4105, tMax=10; ma @ t=4110, tMax=10; ma @ t=4115, tMax=10; ma @ t=4120, tMax=10; ma @ t=4125, tMax=10; ma @ t=4130, tMax=10; ma @ t=4135, tMax=10; ma @ t=4140, tMax=10; ma @ t=4145, tMax=10; ma @ t=4150, tMax=10; ma @ t=4155, tMax=10; ma @ t=4160, tMax=10; ma @ t=4165, tMax=10; ma @ t=4170, tMax=10; ma @ t=4175, tMax=10; ma @ t=4180, tMax=10; ma @ t=4185, tMax=10; ma @ t=4190, tMax=10; ma @ t=4195, tMax=10; ma @ t=4200, tMax=10; ma @ t=4205, tMax=10; ma @ t=4210, tMax=10; ma @ t=4215, tMax=10; ma @ t=4220, tMax=10; ma @ t=4225, tMax=10; ma @ t=4230, tMax=10; ma @ t=4235, tMax=10; ma @ t=4240, tMax=10; ma @ t=4245, tMax=10; ma @ t=4250, tMax=10; ma @ t=4255, tMax=10; ma @ t=4260, tMax=10; ma @ t=4265, tMax=10; ma @ t=4270, tMax=10; ma @ t=4275, tMax=10; ma @ t=4280, tMax=10; ma @ t=4285, tMax=10; ma @ t=4290, tMax=10; ma @ t=4295, tMax=10; ma @ t=4300, tMax=10; ma @ t=4305, tMax=10; ma @ t=4310, tMax=10; ma @ t=4315, tMax=10; ma @ t=4320, tMax=10; ma @ t=4325, tMax=10; ma @ t=4330, tMax=10; ma @ t=4335, tMax=10; ma @ t=4340, tMax=10; ma @ t=4345, tMax=10; ma @ t=4350, tMax=10; ma @ t=4355, tMax=10; ma @ t=4360, tMax=10; ma @ t=4365, tMax=10; ma @ t=4370, tMax=10; ma @ t=4375, tMax=10; ma @ t=4380, tMax=10; ma @ t=4385, tMax=10; ma @ t=4390, tMax=10; ma @ t=4395, tMax=10; ma @ t=4400, tMax=10; ma @ t=4405, tMax=10; ma @ t=4410, tMax=10; ma @ t=4415, tMax=10; ma @ t=4420, tMax=10; ma @ t=4425, tMax=10; ma @ t=4430, tMax=10; ma @ t=4435, tMax=10; ma @ t=4440, tMax=10; ma @ t=4445, tMax=10; ma @ t=4450, tMax=10; ma @ t=4455, tMax=10; ma @ t=4460, tMax=10; ma @ t=4465, tMax=10; ma @ t=4470, tMax=10; ma @ t=4475, tMax=10; ma @ t=4480, tMax=10; ma @ t=4485, tMax=10; ma @ t=4490, tMax=10; ma @ t=4495, tMax=10; ma @ t=4500, tMax=10; ma @ t=4505, tMax=10; ma @ t=4510, tMax=10; ma @ t=4515, tMax=10; ma @ t=4520, tMax=10; ma @ t=4525, tMax=10; ma @ t=4530, tMax=10; ma @ t=4535, tMax=10; ma @ t=4540, tMax=10; ma @ t=4545, tMax=10; ma @ t=4550, tMax=10; ma @ t=4555, tMax=10; ma @ t=4560, tMax=10; ma @ t=4565, tMax=10; ma @ t=4570, tMax=10; ma @ t=4575, tMax=10; ma @ t=4580, tMax=10; ma @ t=4585, tMax=10; ma @ t=4590, tMax=10; ma @ t=4595, tMax=10; ma @ t=4600, tMax=10; ma @ t=4605, tMax=10; ma @ t=4610, tMax=10; ma @ t=4615, tMax=10; ma @ t=4620, tMax=10; ma @ t=4625, tMax=10; ma @ t=4630, tMax=10; ma @ t=4635, tMax=10; ma @ t=4640, tMax=10; ma @ t=4645, tMax=10; ma @ t=4650, tMax=10; ma @ t=4655, tMax=10; ma @ t=4660, tMax=10; ma @ t=4665, tMax=10; ma @ t=4670, tMax=10; ma @ t=4675, tMax=10; ma @ t=4680, tMax=10; ma @ t=4685, tMax=10; ma @ t=4690, tMax=10; ma @ t=4695, tMax=10; ma @ t=4700, tMax=10; ma @ t=4705, tMax=10; ma @ t=4710, tMax=10; ma @ t=4715, tMax=10; ma @ t=4720, tMax=10; ma @ t=4725, tMax=10; ma @ t=4730, tMax=10; ma @ t=4735, tMax=10; ma @ t=4740, tMax=10; ma @ t=4745, tMax=10; ma @ t=4750, tMax=10; ma @ t=4755, tMax=10; ma @ t=4760, tMax=10; ma @ t=4765, tMax=10; ma @ t=4770, tMax=10; ma @ t=4775, tMax=10; ma @ t=4780, tMax=10; ma @ t=4785, tMax=10; ma @ t=4790, tMax=10; ma @ t=4795, tMax=10; ma @ t=4800, tMax=10; ma @ t=4805, tMax=10; ma @ t=4810, tMax=10; ma @ t=4815, tMax=10; ma @ t=4820, tMax=10; ma @ t=4825, tMax=10; ma @ t=4830, tMax=10; ma @ t=4835, tMax=10; ma @ t=4840, tMax=10; ma @ t=4845, tMax=10; ma @ t=4850, tMax=10; ma @ t=4855, tMax=10; ma @ t=4860, tMax=10; ma @ t=4865, tMax=10; ma @ t=4870, tMax=10; ma @ t=4875, tMax=10; ma @ t=4880, tMax=10; ma @ t=4885, tMax=10; ma @ t=4890, tMax=10; ma @ t=4895, tMax=10; ma @ t=4900, tMax=10; ma @ t=4905, tMax=10; ma @ t=4910, tMax=10; ma @ t=4915, tMax=10; ma @ t=4920, tMax=10; ma @ t=4925, tMax=10; ma @ t=4930, tMax=10; ma @ t=4935, tMax=10; ma @ t=4940, tMax=10; ma @ t=4945, tMax=10; ma @ t=4950, tMax=10; ma @ t=4955, tMax=10; ma @ t=4960, tMax=10; ma @ t=4965, tMax=10; ma @ t=4970, tMax=10; ma @ t=4975, tMax=10; ma @ t=4980, tMax=10; ma @ t=4985, tMax=10; ma @ t=4990, tMax=10; ma @ t=4995, tMax=10; ma @ t=5000, tMax=10; ma @ t=5005, tMax=10; ma @ t=5010, tMax=10; ma @ t=5015, tMax=10; ma @ t=5020, tMax=10; ma @ t=5025, tMax=10; ma @ t=5030, tMax=10; ma @ t=5035, tMax=10; ma @ t=5040, tMax=10; ma @ t=5045, tMax=10; ma @ t=5050, tMax=10; ma @ t=5055, tMax=10; ma @ t=5060, tMax=10; ma @ t=5065, tMax=10; ma @ t=5070, tMax=10; ma @ t=5075, tMax=10; ma @ t=5080, tMax=10; ma @ t=5085, tMax=10; ma @ t=5090, tMax=10; ma @ t=5095, tMax=10; ma @ t=5100, tMax=10; ma @ t=5105, tMax=10; ma @ t=5110, tMax=10; ma @ t=5115, tMax=10; ma @ t=5120, tMax=10; ma @ t=5125, tMax=10; ma @ t=5130, tMax=10; ma @ t=5135, tMax=10; ma @ t=5140, tMax=10; ma @ t=5145, tMax=10; ma @ t=5150, tMax=10; ma @ t=5155, tMax=10; ma @ t=5160, tMax=10; ma @ t=5165, tMax=10; ma @ t=5170, tMax=10; ma @ t=5175, tMax=10; ma @ t=5180, tMax=10; ma @ t=5185, tMax=10; ma @ t=5190, tMax=10; ma @ t=5195, tMax=10; ma @ t=5200, tMax=10; ma @ t=5205, tMax=10; ma @ t=5210, tMax=10; ma @ t=5215, tMax=10; ma @ t=5220, tMax=10; ma @ t=5225, tMax=10; ma @ t=5230, tMax=10; ma @ t=5235, tMax=10; ma @ t=5240, tMax=10; ma @ t=5245, tMax=10; ma @ t=5250, tMax=10; ma @ t=5255, tMax=10; ma @ t=5260, tMax=10; ma @ t=5265, tMax=10; ma @ t=5270, tMax=10; ma @ t=5275, tMax=10; ma @ t=5280, tMax=10; ma @ t=5285, tMax=10; ma @ t=5290, tMax=10; ma @ t=5295, tMax=10; ma @ t=5300, tMax=10; ma @ t=5305, tMax=10; ma @ t=5310, tMax=10; ma @ t=5315, tMax=10; ma @ t=5320, tMax=10; ma @ t=5325, tMax=10; ma @ t=5330, tMax=10; ma @ t=5335, tMax=10; ma @ t=5340, tMax=10; ma @ t=5345, tMax=10; ma @ t=5350, tMax=10; ma @ t=5355, tMax=10; ma @ t=5360, tMax=10; ma @ t=5365, tMax=10; ma @ t=5370, tMax=10; ma @ t=5375, tMax=10; ma @ t=5380, tMax=10; ma @ t=5385, tMax=10; ma @ t=5390, tMax=10; ma @ t=5395, tMax=10; ma @ t=5400, tMax=10; ma @ t=5405, tMax=10; ma @ t=5410, tMax=10; ma @ t=5415, tMax=10; ma @ t=5420, tMax=10; ma @ t=5425, tMax=10; ma @ t=5430, tMax=10; ma @ t=5435, tMax=10; ma @ t=5440, tMax=10; ma @ t=5445, tMax=10; ma @ t=5450, tMax=10; ma @ t=5455, tMax=10; ma @ t=5460, tMax=10; ma @ t=5465, tMax=10; ma @ t=5470, tMax=10; ma @ t=5475, tMax=10; ma @ t=5480, tMax=10; ma @ t=5485, tMax=10; ma @ t=5490, tMax=10; ma @ t=5495, tMax=10; ma @ t=5500, tMax=10; ma @ t=5505, tMax=10; ma @ t=5510, tMax=10; ma @ t=5515, tMax=10; ma @ t=5520, tMax=10; ma @ t=5525, tMax=10; ma @ t=5530, tMax=10; ma @ t=5535, tMax=10; ma @ t=5540, tMax=10; ma @ t=5545, tMax=10; ma @ t=5550, tMax=10; ma @ t=5555, tMax=10; ma @ t=5560, tMax=10; ma @ t=5565, tMax=10; ma @ t=5570, tMax=10; ma @ t=5575, tMax=10; ma @ t=5580, tMax=10; ma @ t=5585, tMax=10; ma @ t=5590, tMax=10; ma @ t=5595, tMax=10; ma @ t=5600, tMax=10; ma @ t=5605, tMax=10; ma @ t=5610, tMax=10; ma @ t=5615, tMax=10; ma @ t=5620, tMax=10; ma @ t=5625, tMax=10; ma @ t=5630, tMax=10; ma @ t=5635, tMax=10; ma @ t=5640, tMax=10; ma @ t=5645, tMax=10; ma @ t=5650, tMax=10; ma @ t=5655, tMax=10; ma @ t=5660, tMax=10; ma @ t=5665, tMax=10; ma @ t=5670, tMax=10; ma @ t=5675, tMax=10; ma @ t=5680, tMax=10; ma @ t=5685, tMax=10; ma @ t=5690, tMax=10; ma @ t=5695, tMax=10; ma @ t=5700, tMax=10; ma @ t=5705, tMax=10; ma @ t=5710, tMax=10; ma @ t=5715, tMax=10; ma @ t=5720, tMax=10; ma @ t=5725, tMax=10; ma @ t=5730, tMax=10; ma @ t=5735, tMax=10; ma @ t=5740, tMax=10; ma @ t=5745, tMax=10; ma @ t=5750, tMax=10; ma @ t=5755, tMax=10; ma @ t=5760, tMax=10; ma @ t=5765, tMax=10; ma @ t=5770, tMax=10; ma @ t=5775, tMax=10; ma @ t=5780, tMax=10; ma @ t=5785, tMax=10; ma @ t=5790, tMax=10; ma @ t=5795, tMax=10; ma @ t=5800, tMax=10; ma @ t=5805, tMax=10; ma @ t=5810, tMax=10; ma @ t=5815, tMax=10; ma @ t=5820, tMax=10; ma @ t=5825, tMax=10; ma @ t=5830, tMax=10; ma @ t=5835, tMax=10; ma @ t=5840, tMax=10; ma @ t=5845, tMax=10; ma @ t=5850, tMax=10; ma @ t=5855, tMax=10; ma @ t=5860, tMax=10; ma @ t=5865, tMax=10; ma @ t=5870, tMax=10; ma @ t=5875, tMax=10; ma @ t=5880, tMax=10; ma @ t=5885, tMax=10; ma @ t=5890, tMax=10; ma @ t=5895, tMax=10; ma @ t=5900, tMax=10; ma @ t=5905, tMax=10; ma @ t=5910, tMax=10; ma @ t=5915, tMax=10; ma @ t=5920, tMax=10; ma @ t=5925, tMax=10; ma @ t=5930, tMax=10; ma @ t=5935, tMax=10; ma @ t=5940, tMax=10; ma @ t=5945, tMax=10; ma @ t=5950, tMax=10; ma @ t=5955, tMax=10; ma @ t=5960, tMax=10; ma @ t=5965, tMax=10; ma @ t=5970, tMax=10; ma @ t=5975, tMax=10; ma @ t=5980, tMax=10; ma @ t=5985, tMax=10; ma @ t=5990, tMax=10; ma @ t=5995, tMax=10; ma @ t=6000, tMax=10; ma @ t=0, tMax=10000; ma @ t=5, tMax=10000; ma @ t=10, tMax=10000; ma @ t=15, tMax=10000; ma @ t=20, tMax=10000; ma @ t=25, tMax=10000; ma @ t=30, tMax=10000; ma @ t=35, tMax=10000; ma @ t=40, tMax=10000; ma @ t=45, tMax=10000; ma @ t=50, tMax=10000; ma @ t=55, tMax=10000; ma @ t=60, tMax=10000; ma @ t=65, tMax=10000; ma @ t=70, tMax=10000; ma @ t=75, tMax=10000; ma @ t=80, tMax=10000; ma @ t=85, tMax=10000; ma @ t=90, tMax=10000; ma @ t=95, tMax=10000; ma @ t=100, tMax=10000; ma @ t=105, tMax=10000; ma @ t=110, tMax=10000; ma @ t=115, tMax=10000; ma @ t=120, tMax=10000; ma @ t=125, tMax=10000; ma @ t=130, tMax=10000; ma @ t=135, tMax=10000; ma @ t=140, tMax=10000; ma @ t=145, tMax=10000; ma @ t=150, tMax=10000; ma @ t=155, tMax=10000; ma @ t=160, tMax=10000; ma @ t=165, tMax=10000; ma @ t=170, tMax=10000; ma @ t=175, tMax=10000; ma @ t=180, tMax=10000; ma @ t=185, tMax=10000; ma @ t=190, tMax=10000; ma @ t=195, tMax=10000; ma @ t=200, tMax=10000; ma @ t=205, tMax=10000; ma @ t=210, tMax=10000; ma @ t=215, tMax=10000; ma @ t=220, tMax=10000; ma @ t=225, tMax=10000; ma @ t=230, tMax=10000; ma @ t=235, tMax=10000; ma @ t=240, tMax=10000; ma @ t=245, tMax=10000; ma @ t=250, tMax=10000; ma @ t=255, tMax=10000; ma @ t=260, tMax=10000; ma @ t=265, tMax=10000; ma @ t=270, tMax=10000; ma @ t=275, tMax=10000; ma @ t=280, tMax=10000; ma @ t=285, tMax=10000; ma @ t=290, tMax=10000; ma @ t=295, tMax=10000; ma @ t=300, tMax=10000; ma @ t=305, tMax=10000; ma @ t=310, tMax=10000; ma @ t=315, tMax=10000; ma @ t=320, tMax=10000; ma @ t=325, tMax=10000; ma @ t=330, tMax=10000; ma @ t=335, tMax=10000; ma @ t=340, tMax=10000; ma @ t=345, tMax=10000; ma @ t=350, tMax=10000; ma @ t=355, tMax=10000; ma @ t=360, tMax=10000; ma @ t=365, tMax=10000; ma @ t=370, tMax=10000; ma @ t=375, tMax=10000; ma @ t=380, tMax=10000; ma @ t=385, tMax=10000; ma @ t=390, tMax=10000; ma @ t=395, tMax=10000; ma @ t=400, tMax=10000; ma @ t=405, tMax=10000; ma @ t=410, tMax=10000; ma @ t=415, tMax=10000; ma @ t=420, tMax=10000; ma @ t=425, tMax=10000; ma @ t=430, tMax=10000; ma @ t=435, tMax=10000; ma @ t=440, tMax=10000; ma @ t=445, tMax=10000; ma @ t=450, tMax=10000; ma @ t=455, tMax=10000; ma @ t=460, tMax=10000; ma @ t=465, tMax=10000; ma @ t=470, tMax=10000; ma @ t=475, tMax=10000; ma @ t=480, tMax=10000; ma @ t=485, tMax=10000; ma @ t=490, tMax=10000; ma @ t=495, tMax=10000; ma @ t=500, tMax=10000; ma @ t=505, tMax=10000; ma @ t=510, tMax=10000; ma @ t=515, tMax=10000; ma @ t=520, tMax=10000; ma @ t=525, tMax=10000; ma @ t=530, tMax=10000; ma @ t=535, tMax=10000; ma @ t=540, tMax=10000; ma @ t=545, tMax=10000; ma @ t=550, tMax=10000; ma @ t=555, tMax=10000; ma @ t=560, tMax=10000; ma @ t=565, tMax=10000; ma @ t=570, tMax=10000; ma @ t=575, tMax=10000; ma @ t=580, tMax=10000; ma @ t=585, tMax=10000; ma @ t=590, tMax=10000; ma @ t=595, tMax=10000; ma @ t=600, tMax=10000; ma @ t=605, tMax=10000; ma @ t=610, tMax=10000; ma @ t=615, tMax=10000; ma @ t=620, tMax=10000; ma @ t=625, tMax=10000; ma @ t=630, tMax=10000; ma @ t=635, tMax=10000; ma @ t=640, tMax=10000; ma @ t=645, tMax=10000; ma @ t=650, tMax=10000; ma @ t=655, tMax=10000; ma @ t=660, tMax=10000; ma @ t=665, tMax=10000; ma @ t=670, tMax=10000; ma @ t=675, tMax=10000; ma @ t=680, tMax=10000; ma @ t=685, tMax=10000; ma @ t=690, tMax=10000; ma @ t=695, tMax=10000; ma @ t=700, tMax=10000; ma @ t=705, tMax=10000; ma @ t=710, tMax=10000; ma @ t=715, tMax=10000; ma @ t=720, tMax=10000; ma @ t=725, tMax=10000; ma @ t=730, tMax=10000; ma @ t=735, tMax=10000; ma @ 